[Molden Format]
[N_ATOMS]
                   28
[ATOMS] (AU)
C1          1      6           4.93744429     -2.53840485     -0.36510454
C2          2      6           7.54747543     -2.25081688     -0.28174116
C3          3      6           8.63004095      0.16711793     -0.01859491
C4          4      6           7.00016162      2.27381863      0.20544536
C5          5      6           4.39814858      1.97639463      0.10347951
C6          6      6           3.31940976     -0.44232252     -0.18717926
N7          7      7           0.70685584     -0.96066495     -0.24792640
N8          8      7          -0.70699001      0.96276444     -0.24967062
C9          9      6          -3.31946079      0.44389478     -0.18723973
C10        10      6          -4.93839672      2.53903224     -0.36771236
C11        11      6          -7.54832770      2.25037091     -0.28365545
C12        12      6          -8.62989166     -0.16781713     -0.01829066
C13        13      6          -6.99904668     -2.27344824      0.20870324
C14        14      6          -4.39721695     -1.97490175      0.10660701
N15        15      7          11.23609989      0.48932379     -0.09287815
N16        16      7         -11.23557643     -0.49160280     -0.09376632
H17        17      1         -12.27749772      1.05067639      0.36821125
H18        18      1         -11.89951281     -2.08643150      0.73768861
H19        19      1          12.27621082     -1.05311035      0.37286375
H20        20      1          11.89983784      2.08416760      0.73887158
H21        21      1           7.81328998      4.15957066      0.44064823
H22        22      1           3.13727796      3.59807256      0.26247918
H23        23      1           4.08431232     -4.40569993     -0.57260402
H24        24      1           8.77682543     -3.90348631     -0.44208631
H25        25      1          -7.81135679     -4.15931177      0.44568435
H26        26      1          -3.13557909     -3.59578221      0.26739058
H27        27      1          -4.08618692      4.40646149     -0.57798785
H28        28      1          -8.77835988      3.90225232     -0.44698070
[5D]
[7F]
[9G]
[CHARGE] (MULLIKEN)
   2.1614966842451899E-002
   2.1140831207789645E-002
   4.0611514794286485E-002
   5.8007290660802013E-003
   3.5238605654182464E-002
  0.11019407605025844     
 -0.36162570184926501     
 -0.31629132821638528     
   8.9917206768145519E-002
   3.9405826920316578E-002
  -9.5908561943636172E-003
   5.1250609931656754E-002
   4.7375955896136190E-003
   2.7740634181203205E-002
 -0.22503357436321458     
 -0.21866406819221851     
  0.11408619537310272     
  0.11501329722089570     
  0.11186084262173990     
  0.11182431962908168     
   2.1010487226339913E-002
   3.5205049968636160E-002
   2.4875193408541385E-002
   2.0145612693975079E-002
   2.8993857625035591E-002
   4.2148922453879023E-002
   3.3517230402327902E-002
   2.4871923176787769E-002
[GTO] (AU)
   1
   s   9
  0.666500000E+04  0.692000179E-03
  0.100000000E+04  0.532900138E-02
  0.228000000E+03  0.270770070E-01
  0.647100000E+02  0.101718026E+00
  0.210600000E+02  0.274740071E+00
  0.749500000E+01  0.448564116E+00
  0.279700000E+01  0.285074074E+00
  0.521500000E+00  0.152040039E-01
  0.159600000E+00 -0.319100083E-02
   s   9
  0.666500000E+04 -0.146000064E-03
  0.100000000E+04 -0.115400051E-02
  0.228000000E+03 -0.572500252E-02
  0.647100000E+02 -0.233120103E-01
  0.210600000E+02 -0.639550281E-01
  0.749500000E+01 -0.149981066E+00
  0.279700000E+01 -0.127262056E+00
  0.521500000E+00  0.544529240E+00
  0.159600000E+00  0.580496255E+00
   s   1
  0.159600000E+00  0.100000000E+01
   p   4
  0.943900000E+01  0.381090213E-01
  0.200200000E+01  0.209480117E+00
  0.545600000E+00  0.508557284E+00
  0.151700000E+00  0.468842262E+00
   p   1
  0.151700000E+00  0.100000000E+01
   d   1
  0.550000000E+00  0.100000000E+01
 
   2
   s   9
  0.666500000E+04  0.692000179E-03
  0.100000000E+04  0.532900138E-02
  0.228000000E+03  0.270770070E-01
  0.647100000E+02  0.101718026E+00
  0.210600000E+02  0.274740071E+00
  0.749500000E+01  0.448564116E+00
  0.279700000E+01  0.285074074E+00
  0.521500000E+00  0.152040039E-01
  0.159600000E+00 -0.319100083E-02
   s   9
  0.666500000E+04 -0.146000064E-03
  0.100000000E+04 -0.115400051E-02
  0.228000000E+03 -0.572500252E-02
  0.647100000E+02 -0.233120103E-01
  0.210600000E+02 -0.639550281E-01
  0.749500000E+01 -0.149981066E+00
  0.279700000E+01 -0.127262056E+00
  0.521500000E+00  0.544529240E+00
  0.159600000E+00  0.580496255E+00
   s   1
  0.159600000E+00  0.100000000E+01
   p   4
  0.943900000E+01  0.381090213E-01
  0.200200000E+01  0.209480117E+00
  0.545600000E+00  0.508557284E+00
  0.151700000E+00  0.468842262E+00
   p   1
  0.151700000E+00  0.100000000E+01
   d   1
  0.550000000E+00  0.100000000E+01
 
   3
   s   9
  0.666500000E+04  0.692000179E-03
  0.100000000E+04  0.532900138E-02
  0.228000000E+03  0.270770070E-01
  0.647100000E+02  0.101718026E+00
  0.210600000E+02  0.274740071E+00
  0.749500000E+01  0.448564116E+00
  0.279700000E+01  0.285074074E+00
  0.521500000E+00  0.152040039E-01
  0.159600000E+00 -0.319100083E-02
   s   9
  0.666500000E+04 -0.146000064E-03
  0.100000000E+04 -0.115400051E-02
  0.228000000E+03 -0.572500252E-02
  0.647100000E+02 -0.233120103E-01
  0.210600000E+02 -0.639550281E-01
  0.749500000E+01 -0.149981066E+00
  0.279700000E+01 -0.127262056E+00
  0.521500000E+00  0.544529240E+00
  0.159600000E+00  0.580496255E+00
   s   1
  0.159600000E+00  0.100000000E+01
   p   4
  0.943900000E+01  0.381090213E-01
  0.200200000E+01  0.209480117E+00
  0.545600000E+00  0.508557284E+00
  0.151700000E+00  0.468842262E+00
   p   1
  0.151700000E+00  0.100000000E+01
   d   1
  0.550000000E+00  0.100000000E+01
 
   4
   s   9
  0.666500000E+04  0.692000179E-03
  0.100000000E+04  0.532900138E-02
  0.228000000E+03  0.270770070E-01
  0.647100000E+02  0.101718026E+00
  0.210600000E+02  0.274740071E+00
  0.749500000E+01  0.448564116E+00
  0.279700000E+01  0.285074074E+00
  0.521500000E+00  0.152040039E-01
  0.159600000E+00 -0.319100083E-02
   s   9
  0.666500000E+04 -0.146000064E-03
  0.100000000E+04 -0.115400051E-02
  0.228000000E+03 -0.572500252E-02
  0.647100000E+02 -0.233120103E-01
  0.210600000E+02 -0.639550281E-01
  0.749500000E+01 -0.149981066E+00
  0.279700000E+01 -0.127262056E+00
  0.521500000E+00  0.544529240E+00
  0.159600000E+00  0.580496255E+00
   s   1
  0.159600000E+00  0.100000000E+01
   p   4
  0.943900000E+01  0.381090213E-01
  0.200200000E+01  0.209480117E+00
  0.545600000E+00  0.508557284E+00
  0.151700000E+00  0.468842262E+00
   p   1
  0.151700000E+00  0.100000000E+01
   d   1
  0.550000000E+00  0.100000000E+01
 
   5
   s   9
  0.666500000E+04  0.692000179E-03
  0.100000000E+04  0.532900138E-02
  0.228000000E+03  0.270770070E-01
  0.647100000E+02  0.101718026E+00
  0.210600000E+02  0.274740071E+00
  0.749500000E+01  0.448564116E+00
  0.279700000E+01  0.285074074E+00
  0.521500000E+00  0.152040039E-01
  0.159600000E+00 -0.319100083E-02
   s   9
  0.666500000E+04 -0.146000064E-03
  0.100000000E+04 -0.115400051E-02
  0.228000000E+03 -0.572500252E-02
  0.647100000E+02 -0.233120103E-01
  0.210600000E+02 -0.639550281E-01
  0.749500000E+01 -0.149981066E+00
  0.279700000E+01 -0.127262056E+00
  0.521500000E+00  0.544529240E+00
  0.159600000E+00  0.580496255E+00
   s   1
  0.159600000E+00  0.100000000E+01
   p   4
  0.943900000E+01  0.381090213E-01
  0.200200000E+01  0.209480117E+00
  0.545600000E+00  0.508557284E+00
  0.151700000E+00  0.468842262E+00
   p   1
  0.151700000E+00  0.100000000E+01
   d   1
  0.550000000E+00  0.100000000E+01
 
   6
   s   9
  0.666500000E+04  0.692000179E-03
  0.100000000E+04  0.532900138E-02
  0.228000000E+03  0.270770070E-01
  0.647100000E+02  0.101718026E+00
  0.210600000E+02  0.274740071E+00
  0.749500000E+01  0.448564116E+00
  0.279700000E+01  0.285074074E+00
  0.521500000E+00  0.152040039E-01
  0.159600000E+00 -0.319100083E-02
   s   9
  0.666500000E+04 -0.146000064E-03
  0.100000000E+04 -0.115400051E-02
  0.228000000E+03 -0.572500252E-02
  0.647100000E+02 -0.233120103E-01
  0.210600000E+02 -0.639550281E-01
  0.749500000E+01 -0.149981066E+00
  0.279700000E+01 -0.127262056E+00
  0.521500000E+00  0.544529240E+00
  0.159600000E+00  0.580496255E+00
   s   1
  0.159600000E+00  0.100000000E+01
   p   4
  0.943900000E+01  0.381090213E-01
  0.200200000E+01  0.209480117E+00
  0.545600000E+00  0.508557284E+00
  0.151700000E+00  0.468842262E+00
   p   1
  0.151700000E+00  0.100000000E+01
   d   1
  0.550000000E+00  0.100000000E+01
 
   7
   s   9
  0.904600000E+04  0.700000035E-03
  0.135700000E+04  0.538900027E-02
  0.309300000E+03  0.274060014E-01
  0.877300000E+02  0.103207005E+00
  0.285600000E+02  0.278723014E+00
  0.102100000E+02  0.448540022E+00
  0.383800000E+01  0.278238014E+00
  0.746600000E+00  0.154400008E-01
  0.224800000E+00 -0.286400014E-02
   s   9
  0.904600000E+04 -0.152999989E-03
  0.135700000E+04 -0.120799991E-02
  0.309300000E+03 -0.599199955E-02
  0.877300000E+02 -0.245439982E-01
  0.285600000E+02 -0.674589950E-01
  0.102100000E+02 -0.158077988E+00
  0.383800000E+01 -0.121830991E+00
  0.746600000E+00  0.549002959E+00
  0.224800000E+00  0.578814957E+00
   s   1
  0.224800000E+00  0.100000000E+01
   p   4
  0.135500000E+02  0.399190123E-01
  0.291700000E+01  0.217169067E+00
  0.797300000E+00  0.510319158E+00
  0.218500000E+00  0.462214143E+00
   p   1
  0.218500000E+00  0.100000000E+01
   d   1
  0.817000000E+00  0.100000000E+01
 
   8
   s   9
  0.904600000E+04  0.700000035E-03
  0.135700000E+04  0.538900027E-02
  0.309300000E+03  0.274060014E-01
  0.877300000E+02  0.103207005E+00
  0.285600000E+02  0.278723014E+00
  0.102100000E+02  0.448540022E+00
  0.383800000E+01  0.278238014E+00
  0.746600000E+00  0.154400008E-01
  0.224800000E+00 -0.286400014E-02
   s   9
  0.904600000E+04 -0.152999989E-03
  0.135700000E+04 -0.120799991E-02
  0.309300000E+03 -0.599199955E-02
  0.877300000E+02 -0.245439982E-01
  0.285600000E+02 -0.674589950E-01
  0.102100000E+02 -0.158077988E+00
  0.383800000E+01 -0.121830991E+00
  0.746600000E+00  0.549002959E+00
  0.224800000E+00  0.578814957E+00
   s   1
  0.224800000E+00  0.100000000E+01
   p   4
  0.135500000E+02  0.399190123E-01
  0.291700000E+01  0.217169067E+00
  0.797300000E+00  0.510319158E+00
  0.218500000E+00  0.462214143E+00
   p   1
  0.218500000E+00  0.100000000E+01
   d   1
  0.817000000E+00  0.100000000E+01
 
   9
   s   9
  0.666500000E+04  0.692000179E-03
  0.100000000E+04  0.532900138E-02
  0.228000000E+03  0.270770070E-01
  0.647100000E+02  0.101718026E+00
  0.210600000E+02  0.274740071E+00
  0.749500000E+01  0.448564116E+00
  0.279700000E+01  0.285074074E+00
  0.521500000E+00  0.152040039E-01
  0.159600000E+00 -0.319100083E-02
   s   9
  0.666500000E+04 -0.146000064E-03
  0.100000000E+04 -0.115400051E-02
  0.228000000E+03 -0.572500252E-02
  0.647100000E+02 -0.233120103E-01
  0.210600000E+02 -0.639550281E-01
  0.749500000E+01 -0.149981066E+00
  0.279700000E+01 -0.127262056E+00
  0.521500000E+00  0.544529240E+00
  0.159600000E+00  0.580496255E+00
   s   1
  0.159600000E+00  0.100000000E+01
   p   4
  0.943900000E+01  0.381090213E-01
  0.200200000E+01  0.209480117E+00
  0.545600000E+00  0.508557284E+00
  0.151700000E+00  0.468842262E+00
   p   1
  0.151700000E+00  0.100000000E+01
   d   1
  0.550000000E+00  0.100000000E+01
 
  10
   s   9
  0.666500000E+04  0.692000179E-03
  0.100000000E+04  0.532900138E-02
  0.228000000E+03  0.270770070E-01
  0.647100000E+02  0.101718026E+00
  0.210600000E+02  0.274740071E+00
  0.749500000E+01  0.448564116E+00
  0.279700000E+01  0.285074074E+00
  0.521500000E+00  0.152040039E-01
  0.159600000E+00 -0.319100083E-02
   s   9
  0.666500000E+04 -0.146000064E-03
  0.100000000E+04 -0.115400051E-02
  0.228000000E+03 -0.572500252E-02
  0.647100000E+02 -0.233120103E-01
  0.210600000E+02 -0.639550281E-01
  0.749500000E+01 -0.149981066E+00
  0.279700000E+01 -0.127262056E+00
  0.521500000E+00  0.544529240E+00
  0.159600000E+00  0.580496255E+00
   s   1
  0.159600000E+00  0.100000000E+01
   p   4
  0.943900000E+01  0.381090213E-01
  0.200200000E+01  0.209480117E+00
  0.545600000E+00  0.508557284E+00
  0.151700000E+00  0.468842262E+00
   p   1
  0.151700000E+00  0.100000000E+01
   d   1
  0.550000000E+00  0.100000000E+01
 
  11
   s   9
  0.666500000E+04  0.692000179E-03
  0.100000000E+04  0.532900138E-02
  0.228000000E+03  0.270770070E-01
  0.647100000E+02  0.101718026E+00
  0.210600000E+02  0.274740071E+00
  0.749500000E+01  0.448564116E+00
  0.279700000E+01  0.285074074E+00
  0.521500000E+00  0.152040039E-01
  0.159600000E+00 -0.319100083E-02
   s   9
  0.666500000E+04 -0.146000064E-03
  0.100000000E+04 -0.115400051E-02
  0.228000000E+03 -0.572500252E-02
  0.647100000E+02 -0.233120103E-01
  0.210600000E+02 -0.639550281E-01
  0.749500000E+01 -0.149981066E+00
  0.279700000E+01 -0.127262056E+00
  0.521500000E+00  0.544529240E+00
  0.159600000E+00  0.580496255E+00
   s   1
  0.159600000E+00  0.100000000E+01
   p   4
  0.943900000E+01  0.381090213E-01
  0.200200000E+01  0.209480117E+00
  0.545600000E+00  0.508557284E+00
  0.151700000E+00  0.468842262E+00
   p   1
  0.151700000E+00  0.100000000E+01
   d   1
  0.550000000E+00  0.100000000E+01
 
  12
   s   9
  0.666500000E+04  0.692000179E-03
  0.100000000E+04  0.532900138E-02
  0.228000000E+03  0.270770070E-01
  0.647100000E+02  0.101718026E+00
  0.210600000E+02  0.274740071E+00
  0.749500000E+01  0.448564116E+00
  0.279700000E+01  0.285074074E+00
  0.521500000E+00  0.152040039E-01
  0.159600000E+00 -0.319100083E-02
   s   9
  0.666500000E+04 -0.146000064E-03
  0.100000000E+04 -0.115400051E-02
  0.228000000E+03 -0.572500252E-02
  0.647100000E+02 -0.233120103E-01
  0.210600000E+02 -0.639550281E-01
  0.749500000E+01 -0.149981066E+00
  0.279700000E+01 -0.127262056E+00
  0.521500000E+00  0.544529240E+00
  0.159600000E+00  0.580496255E+00
   s   1
  0.159600000E+00  0.100000000E+01
   p   4
  0.943900000E+01  0.381090213E-01
  0.200200000E+01  0.209480117E+00
  0.545600000E+00  0.508557284E+00
  0.151700000E+00  0.468842262E+00
   p   1
  0.151700000E+00  0.100000000E+01
   d   1
  0.550000000E+00  0.100000000E+01
 
  13
   s   9
  0.666500000E+04  0.692000179E-03
  0.100000000E+04  0.532900138E-02
  0.228000000E+03  0.270770070E-01
  0.647100000E+02  0.101718026E+00
  0.210600000E+02  0.274740071E+00
  0.749500000E+01  0.448564116E+00
  0.279700000E+01  0.285074074E+00
  0.521500000E+00  0.152040039E-01
  0.159600000E+00 -0.319100083E-02
   s   9
  0.666500000E+04 -0.146000064E-03
  0.100000000E+04 -0.115400051E-02
  0.228000000E+03 -0.572500252E-02
  0.647100000E+02 -0.233120103E-01
  0.210600000E+02 -0.639550281E-01
  0.749500000E+01 -0.149981066E+00
  0.279700000E+01 -0.127262056E+00
  0.521500000E+00  0.544529240E+00
  0.159600000E+00  0.580496255E+00
   s   1
  0.159600000E+00  0.100000000E+01
   p   4
  0.943900000E+01  0.381090213E-01
  0.200200000E+01  0.209480117E+00
  0.545600000E+00  0.508557284E+00
  0.151700000E+00  0.468842262E+00
   p   1
  0.151700000E+00  0.100000000E+01
   d   1
  0.550000000E+00  0.100000000E+01
 
  14
   s   9
  0.666500000E+04  0.692000179E-03
  0.100000000E+04  0.532900138E-02
  0.228000000E+03  0.270770070E-01
  0.647100000E+02  0.101718026E+00
  0.210600000E+02  0.274740071E+00
  0.749500000E+01  0.448564116E+00
  0.279700000E+01  0.285074074E+00
  0.521500000E+00  0.152040039E-01
  0.159600000E+00 -0.319100083E-02
   s   9
  0.666500000E+04 -0.146000064E-03
  0.100000000E+04 -0.115400051E-02
  0.228000000E+03 -0.572500252E-02
  0.647100000E+02 -0.233120103E-01
  0.210600000E+02 -0.639550281E-01
  0.749500000E+01 -0.149981066E+00
  0.279700000E+01 -0.127262056E+00
  0.521500000E+00  0.544529240E+00
  0.159600000E+00  0.580496255E+00
   s   1
  0.159600000E+00  0.100000000E+01
   p   4
  0.943900000E+01  0.381090213E-01
  0.200200000E+01  0.209480117E+00
  0.545600000E+00  0.508557284E+00
  0.151700000E+00  0.468842262E+00
   p   1
  0.151700000E+00  0.100000000E+01
   d   1
  0.550000000E+00  0.100000000E+01
 
  15
   s   9
  0.904600000E+04  0.700000035E-03
  0.135700000E+04  0.538900027E-02
  0.309300000E+03  0.274060014E-01
  0.877300000E+02  0.103207005E+00
  0.285600000E+02  0.278723014E+00
  0.102100000E+02  0.448540022E+00
  0.383800000E+01  0.278238014E+00
  0.746600000E+00  0.154400008E-01
  0.224800000E+00 -0.286400014E-02
   s   9
  0.904600000E+04 -0.152999989E-03
  0.135700000E+04 -0.120799991E-02
  0.309300000E+03 -0.599199955E-02
  0.877300000E+02 -0.245439982E-01
  0.285600000E+02 -0.674589950E-01
  0.102100000E+02 -0.158077988E+00
  0.383800000E+01 -0.121830991E+00
  0.746600000E+00  0.549002959E+00
  0.224800000E+00  0.578814957E+00
   s   1
  0.224800000E+00  0.100000000E+01
   p   4
  0.135500000E+02  0.399190123E-01
  0.291700000E+01  0.217169067E+00
  0.797300000E+00  0.510319158E+00
  0.218500000E+00  0.462214143E+00
   p   1
  0.218500000E+00  0.100000000E+01
   d   1
  0.817000000E+00  0.100000000E+01
 
  16
   s   9
  0.904600000E+04  0.700000035E-03
  0.135700000E+04  0.538900027E-02
  0.309300000E+03  0.274060014E-01
  0.877300000E+02  0.103207005E+00
  0.285600000E+02  0.278723014E+00
  0.102100000E+02  0.448540022E+00
  0.383800000E+01  0.278238014E+00
  0.746600000E+00  0.154400008E-01
  0.224800000E+00 -0.286400014E-02
   s   9
  0.904600000E+04 -0.152999989E-03
  0.135700000E+04 -0.120799991E-02
  0.309300000E+03 -0.599199955E-02
  0.877300000E+02 -0.245439982E-01
  0.285600000E+02 -0.674589950E-01
  0.102100000E+02 -0.158077988E+00
  0.383800000E+01 -0.121830991E+00
  0.746600000E+00  0.549002959E+00
  0.224800000E+00  0.578814957E+00
   s   1
  0.224800000E+00  0.100000000E+01
   p   4
  0.135500000E+02  0.399190123E-01
  0.291700000E+01  0.217169067E+00
  0.797300000E+00  0.510319158E+00
  0.218500000E+00  0.462214143E+00
   p   1
  0.218500000E+00  0.100000000E+01
   d   1
  0.817000000E+00  0.100000000E+01
 
  17
   s   4
  0.130100000E+02  0.196849900E-01
  0.196200000E+01  0.137976930E+00
  0.444600000E+00  0.478147757E+00
  0.122000000E+00  0.501239745E+00
   s   1
  0.122000000E+00  0.100000000E+01
   p   1
  0.727000000E+00  0.100000000E+01
 
  18
   s   4
  0.130100000E+02  0.196849900E-01
  0.196200000E+01  0.137976930E+00
  0.444600000E+00  0.478147757E+00
  0.122000000E+00  0.501239745E+00
   s   1
  0.122000000E+00  0.100000000E+01
   p   1
  0.727000000E+00  0.100000000E+01
 
  19
   s   4
  0.130100000E+02  0.196849900E-01
  0.196200000E+01  0.137976930E+00
  0.444600000E+00  0.478147757E+00
  0.122000000E+00  0.501239745E+00
   s   1
  0.122000000E+00  0.100000000E+01
   p   1
  0.727000000E+00  0.100000000E+01
 
  20
   s   4
  0.130100000E+02  0.196849900E-01
  0.196200000E+01  0.137976930E+00
  0.444600000E+00  0.478147757E+00
  0.122000000E+00  0.501239745E+00
   s   1
  0.122000000E+00  0.100000000E+01
   p   1
  0.727000000E+00  0.100000000E+01
 
  21
   s   4
  0.130100000E+02  0.196849900E-01
  0.196200000E+01  0.137976930E+00
  0.444600000E+00  0.478147757E+00
  0.122000000E+00  0.501239745E+00
   s   1
  0.122000000E+00  0.100000000E+01
   p   1
  0.727000000E+00  0.100000000E+01
 
  22
   s   4
  0.130100000E+02  0.196849900E-01
  0.196200000E+01  0.137976930E+00
  0.444600000E+00  0.478147757E+00
  0.122000000E+00  0.501239745E+00
   s   1
  0.122000000E+00  0.100000000E+01
   p   1
  0.727000000E+00  0.100000000E+01
 
  23
   s   4
  0.130100000E+02  0.196849900E-01
  0.196200000E+01  0.137976930E+00
  0.444600000E+00  0.478147757E+00
  0.122000000E+00  0.501239745E+00
   s   1
  0.122000000E+00  0.100000000E+01
   p   1
  0.727000000E+00  0.100000000E+01
 
  24
   s   4
  0.130100000E+02  0.196849900E-01
  0.196200000E+01  0.137976930E+00
  0.444600000E+00  0.478147757E+00
  0.122000000E+00  0.501239745E+00
   s   1
  0.122000000E+00  0.100000000E+01
   p   1
  0.727000000E+00  0.100000000E+01
 
  25
   s   4
  0.130100000E+02  0.196849900E-01
  0.196200000E+01  0.137976930E+00
  0.444600000E+00  0.478147757E+00
  0.122000000E+00  0.501239745E+00
   s   1
  0.122000000E+00  0.100000000E+01
   p   1
  0.727000000E+00  0.100000000E+01
 
  26
   s   4
  0.130100000E+02  0.196849900E-01
  0.196200000E+01  0.137976930E+00
  0.444600000E+00  0.478147757E+00
  0.122000000E+00  0.501239745E+00
   s   1
  0.122000000E+00  0.100000000E+01
   p   1
  0.727000000E+00  0.100000000E+01
 
  27
   s   4
  0.130100000E+02  0.196849900E-01
  0.196200000E+01  0.137976930E+00
  0.444600000E+00  0.478147757E+00
  0.122000000E+00  0.501239745E+00
   s   1
  0.122000000E+00  0.100000000E+01
   p   1
  0.727000000E+00  0.100000000E+01
 
  28
   s   4
  0.130100000E+02  0.196849900E-01
  0.196200000E+01  0.137976930E+00
  0.444600000E+00  0.478147757E+00
  0.122000000E+00  0.501239745E+00
   s   1
  0.122000000E+00  0.100000000E+01
   p   1
  0.727000000E+00  0.100000000E+01
 
[MO]
Sym=     1a  
Ene=   -15.5790
Spin= Alpha
Occup=    2.00000
   1        -0.00020422
   2        -0.00070282
   3         0.00590335
   4        -0.00002682
   5        -0.00007989
   6        -0.00000117
   7         0.00182747
   8         0.00268805
   9         0.00028144
  10        -0.00017061
  11         0.00001923
  12         0.00005020
  13        -0.00017147
  14         0.00020561
  15         0.00004663
  16         0.00013015
  17        -0.00397378
  18         0.00011119
  19        -0.00004177
  20         0.00000150
  21         0.00114467
  22        -0.00083571
  23        -0.00006366
  24         0.00004074
  25         0.00000280
  26        -0.00000891
  27        -0.00000066
  28         0.00007461
  29        -0.00008458
  30        -0.00030795
  31         0.00110053
  32         0.00004285
  33        -0.00000673
  34         0.00000241
  35        -0.00156459
  36        -0.00093548
  37        -0.00009852
  38        -0.00002658
  39         0.00000704
  40         0.00000525
  41         0.00001509
  42         0.00002083
  43         0.00003680
  44         0.00010777
  45        -0.00364877
  46         0.00003059
  47         0.00008298
  48         0.00001708
  49         0.00198456
  50         0.00017536
  51         0.00004220
  52         0.00001072
  53        -0.00000950
  54        -0.00001045
  55         0.00005945
  56        -0.00008088
  57        -0.00009002
  58        -0.00030461
  59         0.00330969
  60        -0.00005904
  61         0.00005916
  62        -0.00001355
  63         0.00399494
  64        -0.00052647
  65         0.00007056
  66        -0.00012035
  67        -0.00004084
  68         0.00003880
  69        -0.00014197
  70        -0.00034977
  71         0.00023061
  72         0.00067681
  73         0.00139421
  74        -0.00004084
  75        -0.00001590
  76        -0.00000611
  77        -0.00762137
  78         0.00118517
  79        -0.00000326
  80         0.00004640
  81        -0.00002065
  82         0.00003376
  83        -0.00027330
  84        -0.00015519
  85         0.95186856
  86         0.00649988
  87        -0.01194797
  88         0.00056603
  89         0.00275775
  90         0.00006427
  91        -0.00279508
  92        -0.00408349
  93        -0.00012673
  94        -0.00002925
  95        -0.00000577
  96         0.00000127
  97         0.00000709
  98        -0.00013692
  99         0.31129727
 100         0.00246308
 101        -0.00310992
 102        -0.00017970
 103        -0.00075155
 104         0.00001848
 105         0.00178134
 106         0.00094059
 107        -0.00001295
 108         0.00025204
 109         0.00000624
 110        -0.00000409
 111         0.00013902
 112         0.00024430
 113         0.00005457
 114         0.00012958
 115         0.00068810
 116        -0.00010768
 117         0.00000795
 118         0.00000802
 119         0.00350877
 120        -0.00130697
 121         0.00006160
 122        -0.00004421
 123         0.00000197
 124        -0.00002366
 125        -0.00015121
 126         0.00003623
 127        -0.00011651
 128        -0.00039934
 129         0.00311785
 130         0.00000843
 131         0.00000891
 132         0.00000090
 133        -0.00021813
 134        -0.00146924
 135         0.00015003
 136        -0.00009513
 137        -0.00000695
 138        -0.00002779
 139        -0.00009228
 140         0.00007173
 141         0.00002795
 142         0.00008065
 143        -0.00184945
 144        -0.00004353
 145         0.00001510
 146        -0.00000128
 147        -0.00022977
 148         0.00071894
 149        -0.00007759
 150         0.00002571
 151        -0.00000162
 152         0.00000628
 153         0.00000689
 154         0.00003304
 155        -0.00004410
 156        -0.00016030
 157         0.00061196
 158        -0.00001974
 159         0.00000185
 160        -0.00000176
 161         0.00074334
 162         0.00086030
 163        -0.00008240
 164        -0.00001560
 165        -0.00000370
 166        -0.00000472
 167         0.00000594
 168         0.00001847
 169         0.00002498
 170         0.00007566
 171        -0.00194905
 172        -0.00002031
 173        -0.00004354
 174         0.00001198
 175        -0.00136375
 176         0.00010301
 177        -0.00001315
 178         0.00000867
 179         0.00000464
 180         0.00000340
 181         0.00002431
 182        -0.00004167
 183        -0.00004412
 184        -0.00016461
 185         0.00139377
 186         0.00002316
 187        -0.00005519
 188        -0.00000797
 189        -0.00240724
 190        -0.00025266
 191         0.00013872
 192        -0.00002373
 193         0.00002522
 194        -0.00000073
 195        -0.00002990
 196        -0.00018231
 197        -0.00013485
 198        -0.00020517
 199         0.00092888
 200         0.00001967
 201        -0.00000343
 202         0.00000511
 203        -0.00022376
 204         0.00007432
 205         0.00003338
 206         0.00000361
 207         0.00000253
 208         0.00000272
 209        -0.00000933
 210        -0.00000614
 211        -0.00022832
 212        -0.00009942
 213         0.00045186
 214        -0.00000911
 215         0.00000158
 216         0.00000373
 217         0.00010923
 218        -0.00007266
 219         0.00001899
 220         0.00000237
 221        -0.00000135
 222        -0.00000108
 223        -0.00000476
 224        -0.00000482
 225        -0.00001845
 226         0.00003612
 227        -0.00000961
 228         0.00000274
 229        -0.00000002
 230        -0.00004124
 231         0.00000987
 232        -0.00000311
 233        -0.00000362
 234         0.00001181
 235        -0.00004313
 236         0.00005140
 237         0.00001969
 238        -0.00000574
 239         0.00000429
 240        -0.00008618
 241         0.00004907
 242         0.00000868
 243         0.00000843
 244         0.00001861
 245         0.00021977
 246        -0.00020352
 247        -0.00006234
 248        -0.00003772
 249        -0.00000287
 250         0.00001033
 251         0.00054337
 252        -0.00016246
 253         0.00012754
 254         0.00000716
 255        -0.00005026
 256         0.00073190
 257        -0.00008475
 258        -0.00014999
 259        -0.00001537
 260         0.00015029
 261        -0.00027246
 262        -0.00005495
 263         0.00004452
 264         0.00000339
 265         0.00012658
 266        -0.00008736
 267         0.00004101
 268         0.00001490
 269         0.00000044
 270         0.00003273
 271         0.00006689
 272         0.00007047
 273        -0.00006431
 274         0.00000527
 275        -0.00006558
 276         0.00032601
 277         0.00002967
 278         0.00007654
 279        -0.00000824
 280         0.00005340
 281        -0.00013612
 282         0.00001936
 283        -0.00003118
 284         0.00000328
Sym=     2a  
Ene=   -15.5770
Spin= Alpha
Occup=    2.00000
   1         0.00000606
   2         0.00002309
   3        -0.00048372
   4         0.00000925
   5         0.00004768
   6         0.00000286
   7        -0.00107027
   8        -0.00015908
   9        -0.00002411
  10         0.00000753
  11        -0.00000556
  12        -0.00000302
  13         0.00001187
  14        -0.00006226
  15         0.00000026
  16         0.00000399
  17         0.00063059
  18        -0.00002802
  19         0.00001161
  20        -0.00000092
  21        -0.00055733
  22        -0.00027528
  23        -0.00004796
  24         0.00000186
  25        -0.00000022
  26        -0.00000115
  27         0.00000908
  28        -0.00001407
  29         0.00000757
  30         0.00002796
  31        -0.00005046
  32        -0.00000709
  33         0.00000278
  34        -0.00000321
  35         0.00022790
  36        -0.00037757
  37        -0.00002880
  38         0.00000012
  39        -0.00000062
  40         0.00000189
  41        -0.00000383
  42         0.00000747
  43         0.00000423
  44         0.00001583
  45         0.00025620
  46         0.00000276
  47        -0.00000693
  48         0.00000080
  49         0.00023599
  50        -0.00025628
  51        -0.00004661
  52         0.00000322
  53         0.00000142
  54         0.00000346
  55        -0.00001394
  56         0.00000777
  57         0.00001136
  58         0.00001937
  59        -0.00069508
  60         0.00001453
  61         0.00002599
  62        -0.00000272
  63         0.00005403
  64         0.00069984
  65         0.00011997
  66         0.00005893
  67        -0.00000090
  68        -0.00002763
  69         0.00006791
  70         0.00003134
  71        -0.00010128
  72        -0.00033387
  73        -0.00016383
  74         0.00016084
  75         0.00000203
  76         0.00001211
  77         0.00125557
  78         0.00074254
  79         0.00007739
  80        -0.00008870
  81         0.00001261
  82         0.00000408
  83         0.00001358
  84         0.00015948
  85        -0.31107986
  86        -0.00172633
  87         0.00492806
  88        -0.00019968
  89        -0.00107959
  90        -0.00003179
  91        -0.00015790
  92         0.00183124